Title = ""part1's GridUpp""
variables = "x"
"y"
"z"
ZONE T = "ZONE 001"
STRANDID = 0, SOLUTIONTIME = 0
Nodes=800,Elements=741,datapacking=block
zonetype=fequadrilateral
DATAPACKING=BLOCK
           0     0.053471      0.10694     0.160407     0.213868
    0.267323     0.320771     0.374205     0.427618     0.481012
     0.53437     0.587664     0.640883     0.693983     0.746824
     0.79911      0.85022     0.899677     0.948761            1
           0     0.053471      0.10694     0.160407     0.213868
    0.267323     0.320771     0.374205     0.427618     0.481012
     0.53437     0.587664     0.640883     0.693983     0.746824
     0.79911      0.85022     0.899677     0.948761            1
           0     0.053471      0.10694     0.160407     0.213868
    0.267323     0.320771     0.374205     0.427618     0.481012
     0.53437     0.587664     0.640883     0.693983     0.746824
     0.79911      0.85022     0.899677     0.948761            1
           0     0.053471      0.10694     0.160407     0.213868
    0.267323     0.320771     0.374205     0.427618     0.481012
     0.53437     0.587664     0.640883     0.693983     0.746824
     0.79911      0.85022     0.899677     0.948761            1
           0     0.053471      0.10694     0.160407     0.213868
    0.267323     0.320771     0.374205     0.427618     0.481012
     0.53437     0.587664     0.640883     0.693983     0.746824
     0.79911      0.85022     0.899677     0.948761            1
           0     0.053471      0.10694     0.160407     0.213868
    0.267323     0.320771     0.374205     0.427618     0.481012
     0.53437     0.587664     0.640883     0.693983     0.746824
     0.79911      0.85022     0.899677     0.948761            1
           0     0.053471      0.10694     0.160407     0.213868
    0.267323     0.320771     0.374205     0.427618     0.481012
     0.53437     0.587664     0.640883     0.693983     0.746824
     0.79911      0.85022     0.899677     0.948761            1
           0     0.053471      0.10694     0.160407     0.213868
    0.267323     0.320771     0.374205     0.427618     0.481012
     0.53437     0.587664     0.640883     0.693983     0.746824
     0.79911      0.85022     0.899677     0.948761            1
           0     0.053471      0.10694     0.160407     0.213868
    0.267323     0.320771     0.374205     0.427618     0.481012
     0.53437     0.587664     0.640883     0.693983     0.746824
     0.79911      0.85022     0.899677     0.948761            1
           0     0.053471      0.10694     0.160407     0.213868
    0.267323     0.320771     0.374205     0.427618     0.481012
     0.53437     0.587664     0.640883     0.693983     0.746824
     0.79911      0.85022     0.899677     0.948761            1
           0     0.053471      0.10694     0.160407     0.213868
    0.267323     0.320771     0.374205     0.427618     0.481012
     0.53437     0.587664     0.640883     0.693983     0.746824
     0.79911      0.85022     0.899677     0.948761            1
           0     0.053471      0.10694     0.160407     0.213868
    0.267323     0.320771     0.374205     0.427618     0.481012
     0.53437     0.587664     0.640883     0.693983     0.746824
     0.79911      0.85022     0.899677     0.948761            1
           0     0.053471      0.10694     0.160407     0.213868
    0.267323     0.320771     0.374205     0.427618     0.481012
     0.53437     0.587664     0.640883     0.693983     0.746824
     0.79911      0.85022     0.899677     0.948761            1
           0     0.053471      0.10694     0.160407     0.213868
    0.267323     0.320771     0.374205     0.427618     0.481012
     0.53437     0.587664     0.640883     0.693983     0.746824
     0.79911      0.85022     0.899677     0.948761            1
           0     0.053471      0.10694     0.160407     0.213868
    0.267323     0.320771     0.374205     0.427618     0.481012
     0.53437     0.587664     0.640883     0.693983     0.746824
     0.79911      0.85022     0.899677     0.948761            1
           0     0.053471      0.10694     0.160407     0.213868
    0.267323     0.320771     0.374205     0.427618     0.481012
     0.53437     0.587664     0.640883     0.693983     0.746824
     0.79911      0.85022     0.899677     0.948761            1
           0     0.053471      0.10694     0.160407     0.213868
    0.267323     0.320771     0.374205     0.427618     0.481012
     0.53437     0.587664     0.640883     0.693983     0.746824
     0.79911      0.85022     0.899677     0.948761            1
           0     0.053471      0.10694     0.160407     0.213868
    0.267323     0.320771     0.374205     0.427618     0.481012
     0.53437     0.587664     0.640883     0.693983     0.746824
     0.79911      0.85022     0.899677     0.948761            1
           0     0.053471      0.10694     0.160407     0.213868
    0.267323     0.320771     0.374205     0.427618     0.481012
     0.53437     0.587664     0.640883     0.693983     0.746824
     0.79911      0.85022     0.899677     0.948761            1
           0     0.053471      0.10694     0.160407     0.213868
    0.267323     0.320771     0.374205     0.427618     0.481012
     0.53437     0.587664     0.640883     0.693983     0.746824
     0.79911      0.85022     0.899677     0.948761            1
           0     0.053471      0.10694     0.160407     0.213868
    0.267323     0.320771     0.374205     0.427618     0.481012
     0.53437     0.587664     0.640883     0.693983     0.746824
     0.79911      0.85022     0.899677     0.948761            1
           0     0.053471      0.10694     0.160407     0.213868
    0.267323     0.320771     0.374205     0.427618     0.481012
     0.53437     0.587664     0.640883     0.693983     0.746824
     0.79911      0.85022     0.899677     0.948761            1
           0     0.053471      0.10694     0.160407     0.213868
    0.267323     0.320771     0.374205     0.427618     0.481012
     0.53437     0.587664     0.640883     0.693983     0.746824
     0.79911      0.85022     0.899677     0.948761            1
           0     0.053471      0.10694     0.160407     0.213868
    0.267323     0.320771     0.374205     0.427618     0.481012
     0.53437     0.587664     0.640883     0.693983     0.746824
     0.79911      0.85022     0.899677     0.948761            1
           0     0.053471      0.10694     0.160407     0.213868
    0.267323     0.320771     0.374205     0.427618     0.481012
     0.53437     0.587664     0.640883     0.693983     0.746824
     0.79911      0.85022     0.899677     0.948761            1
           0     0.053471      0.10694     0.160407     0.213868
    0.267323     0.320771     0.374205     0.427618     0.481012
     0.53437     0.587664     0.640883     0.693983     0.746824
     0.79911      0.85022     0.899677     0.948761            1
           0     0.053471      0.10694     0.160407     0.213868
    0.267323     0.320771     0.374205     0.427618     0.481012
     0.53437     0.587664     0.640883     0.693983     0.746824
     0.79911      0.85022     0.899677     0.948761            1
           0     0.053471      0.10694     0.160407     0.213868
    0.267323     0.320771     0.374205     0.427618     0.481012
     0.53437     0.587664     0.640883     0.693983     0.746824
     0.79911      0.85022     0.899677     0.948761            1
           0     0.053471      0.10694     0.160407     0.213868
    0.267323     0.320771     0.374205     0.427618     0.481012
     0.53437     0.587664     0.640883     0.693983     0.746824
     0.79911      0.85022     0.899677     0.948761            1
           0     0.053471      0.10694     0.160407     0.213868
    0.267323     0.320771     0.374205     0.427618     0.481012
     0.53437     0.587664     0.640883     0.693983     0.746824
     0.79911      0.85022     0.899677     0.948761            1
           0     0.053471      0.10694     0.160407     0.213868
    0.267323     0.320771     0.374205     0.427618     0.481012
     0.53437     0.587664     0.640883     0.693983     0.746824
     0.79911      0.85022     0.899677     0.948761            1
           0     0.053471      0.10694     0.160407     0.213868
    0.267323     0.320771     0.374205     0.427618     0.481012
     0.53437     0.587664     0.640883     0.693983     0.746824
     0.79911      0.85022     0.899677     0.948761            1
           0     0.053471      0.10694     0.160407     0.213868
    0.267323     0.320771     0.374205     0.427618     0.481012
     0.53437     0.587664     0.640883     0.693983     0.746824
     0.79911      0.85022     0.899677     0.948761            1
           0     0.053471      0.10694     0.160407     0.213868
    0.267323     0.320771     0.374205     0.427618     0.481012
     0.53437     0.587664     0.640883     0.693983     0.746824
     0.79911      0.85022     0.899677     0.948761            1
           0     0.053471      0.10694     0.160407     0.213868
    0.267323     0.320771     0.374205     0.427618     0.481012
     0.53437     0.587664     0.640883     0.693983     0.746824
     0.79911      0.85022     0.899677     0.948761            1
           0     0.053471      0.10694     0.160407     0.213868
    0.267323     0.320771     0.374205     0.427618     0.481012
     0.53437     0.587664     0.640883     0.693983     0.746824
     0.79911      0.85022     0.899677     0.948761            1
           0     0.053471      0.10694     0.160407     0.213868
    0.267323     0.320771     0.374205     0.427618     0.481012
     0.53437     0.587664     0.640883     0.693983     0.746824
     0.79911      0.85022     0.899677     0.948761            1
           0     0.053471      0.10694     0.160407     0.213868
    0.267323     0.320771     0.374205     0.427618     0.481012
     0.53437     0.587664     0.640883     0.693983     0.746824
     0.79911      0.85022     0.899677     0.948761            1
           0     0.053471      0.10694     0.160407     0.213868
    0.267323     0.320771     0.374205     0.427618     0.481012
     0.53437     0.587664     0.640883     0.693983     0.746824
     0.79911      0.85022     0.899677     0.948761            1
           0     0.053471      0.10694     0.160407     0.213868
    0.267323     0.320771     0.374205     0.427618     0.481012
     0.53437     0.587664     0.640883     0.693983     0.746824
     0.79911      0.85022     0.899677     0.948761            1

           0            0            0            0            0
           0            0            0            0            0
           0            0            0            0            0
           0            0            0            0            0
  0.00311805   0.00414576   0.00550955   0.00731315   0.00968455
   0.0127733    0.0167389    0.0217254    0.0278171    0.0349778
   0.0429884    0.0514118    0.0595625    0.0669079    0.0726922
   0.0767804    0.0795737    0.0822175    0.0859203     0.104652
   0.0212583    0.0252984    0.0300202    0.0355018    0.0418186
   0.0490394    0.0572195     0.066387    0.0765191    0.0875075
   0.0991226     0.110991     0.122651     0.133589     0.143304
    0.151421      0.15811     0.164257     0.171808     0.188696
    0.057535    0.0642593    0.0716447    0.0797362     0.088558
   0.0981724     0.108628      0.11995     0.132126     0.145073
    0.158615     0.172473      0.18632     0.199788      0.21259
    0.224597     0.235397     0.245838     0.257652     0.279254
    0.106397     0.114605     0.123399     0.132825     0.142915
    0.153723     0.165315     0.177728     0.190965     0.204976
    0.219632     0.234743     0.250071     0.265403     0.280625
    0.295767     0.311315     0.326442     0.343361     0.370863
    0.162471     0.171343     0.180762     0.190777     0.201416
    0.212765     0.224878     0.237801     0.251556     0.266118
    0.281408     0.297293     0.313627     0.330329      0.34744
    0.365321     0.384478     0.405689     0.428615     0.462773
    0.222659      0.23174     0.241351     0.251527      0.26234
     0.27385     0.286119     0.299201     0.313133     0.327914
    0.343501     0.359815     0.376785     0.394443     0.412993
    0.433013     0.455511     0.481955     0.512612     0.554813
    0.285293     0.294324     0.303867     0.313984     0.324728
    0.336161     0.348349     0.361354     0.375224     0.389981
    0.405608     0.422071     0.439366     0.457608     0.477154
    0.498743     0.523791     0.554429     0.594404     0.646749
    0.349415     0.358241     0.367577     0.377474     0.387985
    0.399176     0.411114     0.423867     0.437494     0.452029
    0.467481     0.483851     0.501183     0.519659     0.539749
    0.562321     0.589067     0.622745     0.668508     0.736369
    0.414439     0.422961     0.431977     0.441538     0.451698
    0.462521     0.474077     0.486437     0.499664     0.513805
    0.528885     0.544934     0.562027     0.580396     0.600569
    0.623497      0.65098     0.686127     0.735328     0.817872
     0.47995     0.488085     0.496695     0.505829      0.51554
    0.525892     0.536951      0.54879     0.561473     0.575053
    0.589574     0.605074     0.621649      0.63956      0.65934
    0.681949     0.709152        0.744     0.792818     0.874339
     0.54561      0.55329      0.56142     0.570047     0.579221
    0.589001     0.599453     0.610643     0.622638     0.635495
    0.649258     0.663973     0.679738     0.696819     0.715713
    0.737308     0.763194     0.796019     0.841035     0.912046
    0.611113     0.618271     0.625849     0.633887     0.642432
    0.651537     0.661263     0.671672     0.682828     0.694784
    0.707577     0.721251     0.735895     0.751749     0.769245
    0.789133     0.812703     0.842022     0.880877     0.938055
    0.676126      0.68269     0.689633      0.69699     0.704803
    0.713118     0.721987     0.731467     0.741616     0.752468
    0.764055     0.776407     0.789592     0.803799     0.819372
    0.836881     0.857268     0.881979     0.913436      0.95687
    0.740225     0.746105     0.752314     0.758881     0.765839
    0.773226     0.781086     0.789469     0.798404      0.80792
    0.818032     0.828752     0.840115     0.852247     0.865389
    0.879929     0.896477     0.915932     0.939719     0.970859
    0.802791     0.807872     0.813221     0.818859      0.82481
      0.8311     0.837768     0.844833     0.852315     0.860227
    0.868565     0.877319     0.886491     0.896149      0.90643
    0.917568     0.929919     0.943982     0.960549     0.981336
    0.862811      0.86694     0.871263     0.875791     0.880537
    0.885515     0.890745     0.896235     0.901989     0.908004
     0.91426     0.920731     0.927396      0.93428     0.941453
    0.949034      0.95721     0.966244     0.976552     0.989076
    0.918412     0.921377     0.924448     0.927629     0.930922
     0.93433     0.937856       0.9415     0.945259     0.949121
    0.953064     0.957061     0.961086     0.965148      0.96928
    0.973537     0.978012     0.982829     0.988191     0.994556
    0.965625      0.96718      0.96876     0.970364      0.97199
    0.973636     0.975303     0.976988     0.978688     0.980398
    0.982105     0.983794     0.985453     0.987088     0.988714
    0.990356     0.992046     0.993831     0.995784     0.998069
    0.995688     0.995924     0.996158     0.996389     0.996616
    0.996841     0.997063     0.997284     0.997505     0.997724
     0.99794      0.99815      0.99835     0.998543     0.998733
    0.998922     0.999114     0.999315     0.999533     0.999786
    0.995681      0.99592     0.996158     0.996396     0.996632
    0.996865     0.997096     0.997321      0.99754      0.99775
    0.997954     0.998153      0.99835     0.998543     0.998733
    0.998922     0.999114     0.999316     0.999535     0.999788
    0.965608      0.96717     0.968761     0.970382     0.972029
      0.9737     0.975388     0.977085     0.978783     0.980471
    0.982144     0.983803     0.985453     0.987088     0.988714
    0.990356     0.992046     0.993833     0.995791     0.998074
     0.91839     0.921363      0.92445     0.927653     0.930976
    0.934418     0.937976     0.941639     0.945395     0.949227
    0.953122     0.957074     0.961086     0.965148      0.96928
    0.973537     0.978013     0.982834     0.988204     0.994565
    0.862786     0.866925     0.871264     0.875818     0.880599
    0.885618     0.890886     0.896401     0.902154     0.908134
    0.914332     0.920748     0.927396      0.93428     0.941453
    0.949034     0.957211      0.96625     0.976572      0.98909
    0.802764     0.807855     0.813223     0.818889     0.824878
    0.831213     0.837924     0.845017     0.852498     0.860373
    0.868647     0.877339     0.886491     0.896149      0.90643
    0.917568     0.929921      0.94399     0.960574     0.981356
    0.740197     0.746087     0.752315     0.758912     0.765911
    0.773345     0.781253     0.789665     0.798601     0.808079
    0.818122     0.828774     0.840115     0.852247     0.865389
    0.879929      0.89648     0.915942     0.939752     0.970886
    0.676097     0.682672     0.689634     0.697023     0.704877
    0.713241     0.722159     0.731676     0.741823     0.752635
    0.764149      0.77643     0.789592     0.803799     0.819372
    0.836881      0.85727     0.881992     0.913476     0.956905
    0.611083     0.618253     0.625851      0.63392     0.642508
    0.651664      0.66144     0.671884     0.683044     0.694958
    0.707676     0.721275     0.735895     0.751749     0.769245
    0.789132     0.812706     0.842036     0.880927     0.938102
     0.54558     0.553271     0.561422     0.570081     0.579298
     0.58913     0.599633     0.610859      0.62286     0.635674
     0.64936     0.663997     0.679738     0.696819     0.715713
    0.737308     0.763197     0.796035     0.841095     0.912111
     0.47992     0.488066     0.496697     0.505863     0.515619
    0.526023     0.537134     0.549009     0.561697     0.575239
    0.589678       0.6051     0.621649      0.63956      0.65934
    0.681949     0.709155     0.744018     0.792888     0.874513
     0.41441     0.422942     0.431979     0.441572     0.451776
    0.462652     0.474262      0.48666     0.499891      0.51399
    0.528992     0.544961     0.562027     0.580396     0.600568
    0.623497     0.650983     0.686147     0.735408     0.820581
    0.349386     0.358222     0.367579     0.377507     0.388063
    0.399306     0.411297      0.42409     0.437722     0.452216
    0.467589     0.483878     0.501183     0.519659     0.539749
    0.562321     0.589071     0.622766     0.668744      0.73615
    0.285265     0.294306     0.303869     0.314017     0.324804
     0.33629      0.34853     0.361574     0.375451     0.390168
    0.405717     0.422098     0.439366     0.457608     0.477153
    0.498743     0.523795     0.554571     0.598973     0.646749
    0.222631     0.231722     0.241353     0.251559     0.262414
    0.273976     0.286297     0.299419     0.313357       0.3281
    0.343611     0.359842     0.376785     0.394443     0.412992
    0.433013      0.45554     0.484319     0.512612     0.554813
    0.162446     0.171326     0.180764     0.190807     0.201488
    0.212886     0.225051     0.238014     0.251777     0.266303
    0.281516      0.29732     0.313627     0.330329      0.34744
    0.365328     0.384889     0.406183     0.428615     0.462773
    0.106374      0.11459     0.123401     0.132853     0.142982
    0.153838     0.165481     0.177932     0.191179     0.205156
    0.219739      0.23477     0.250071     0.265403     0.280627
    0.295889     0.312493     0.326442     0.343361     0.370863
   0.0575164     0.064247    0.0716459    0.0797609    0.0886175
   0.0982767     0.108781     0.120142     0.132329     0.145246
    0.158719       0.1725      0.18632     0.199788      0.21263
    0.225069     0.235397     0.245838     0.257652     0.279254
   0.0212464      0.02529    0.0300211    0.0355204    0.0418655
    0.049125    0.0573494    0.0665555    0.0767033    0.0876686
   0.0992216     0.110994     0.122607     0.133595      0.14336
    0.151421      0.15811     0.164257     0.171808     0.188696
  0.00311082   0.00413198    0.0054838   0.00726614     0.009601
   0.0126294    0.0165004    0.0213481    0.0272588    0.0342392
   0.0422058    0.0509849    0.0595625    0.0669079    0.0726921
   0.0767804    0.0795737    0.0822175    0.0859203     0.104651
           0            0            0            0            0
           0            0            0            0            0
           0            0            0            0            0
           0            0            0            0            0

          -1           -1           -1           -1           -1
          -1           -1           -1           -1           -1
          -1           -1           -1           -1           -1
          -1           -1           -1           -1           -1
   -0.924071    -0.924313    -0.924595    -0.924946    -0.925416
   -0.926085     -0.92708    -0.928585    -0.930857     -0.93422
    -0.93904    -0.945644     -0.95423    -0.964479    -0.975719
   -0.986416    -0.994632    -0.998948     -0.99997           -1
   -0.850283    -0.851532    -0.853079    -0.855002    -0.857395
   -0.860364    -0.864038    -0.868578    -0.874189    -0.881134
   -0.889737     -0.90035    -0.913251    -0.928528    -0.945877
   -0.964274      -0.9815    -0.994185    -0.999531           -1
   -0.783549    -0.786531    -0.789949    -0.793866    -0.798381
    -0.80356    -0.809503    -0.816351    -0.824295    -0.833595
   -0.844591    -0.857686     -0.87328     -0.89171    -0.913063
   -0.936896    -0.961866    -0.984194    -0.997666    -0.999999
    -0.72536    -0.729867    -0.734822    -0.740283    -0.746328
   -0.753036    -0.760496    -0.768847    -0.778281    -0.789065
   -0.801552    -0.816178    -0.833443    -0.853854    -0.877826
   -0.905507    -0.936228    -0.967916    -0.992707    -0.999975
   -0.674044    -0.679569    -0.685528    -0.691977    -0.698998
   -0.706649    -0.715034    -0.724293    -0.734615    -0.746268
   -0.759609    -0.775098    -0.793295    -0.814822     -0.84034
   -0.870411    -0.905394    -0.944486    -0.982363    -0.999775
   -0.627612    -0.633724    -0.640256    -0.647272    -0.654823
   -0.662987    -0.671866    -0.681596    -0.692362    -0.704424
   -0.718138    -0.733976    -0.752524    -0.774475    -0.800645
   -0.831926    -0.869325    -0.913716    -0.963848    -0.998617
   -0.584543    -0.590927    -0.597722    -0.604971    -0.612737
   -0.621095    -0.630143     -0.64001    -0.650874    -0.662985
   -0.676689    -0.692453    -0.710869    -0.732665    -0.758723
   -0.790155    -0.828393    -0.875609    -0.934041    -0.993577
   -0.543749    -0.550173    -0.556984     -0.56423     -0.57197
   -0.580276    -0.589237    -0.598975    -0.609657    -0.621519
   -0.634891    -0.650221     -0.66809    -0.689222    -0.714507
   -0.745144    -0.782761    -0.830192    -0.892691     -0.97628
   -0.504413    -0.510696    -0.517344    -0.524402    -0.531925
   -0.539977    -0.548641    -0.558028    -0.568291    -0.579648
   -0.592407    -0.606986    -0.623939    -0.643953    -0.667883
   -0.696895    -0.732623    -0.777978    -0.838968    -0.930633
    -0.46589    -0.471891    -0.478231    -0.484948    -0.492091
   -0.499719    -0.507904    -0.516747    -0.526384    -0.537011
   -0.548904    -0.562448    -0.578153    -0.596642    -0.618702
   -0.645389    -0.678175    -0.719679    -0.775288    -0.859596
   -0.427626    -0.433226     -0.43913    -0.445372    -0.451995
   -0.459048    -0.466595    -0.474721    -0.483544    -0.493232
    -0.50403    -0.516281    -0.530438    -0.547045    -0.566789
   -0.590576    -0.619623    -0.656093    -0.704307    -0.775719
   -0.389091    -0.394182    -0.399536    -0.405183    -0.411156
   -0.417498    -0.424259     -0.43151    -0.439344    -0.447901
   -0.457395     -0.46812    -0.480464    -0.494883     -0.51195
   -0.532398    -0.557192    -0.588018    -0.628266    -0.687332
   -0.349724    -0.354205    -0.358903    -0.363841    -0.369045
   -0.374547    -0.380384    -0.386607    -0.393287    -0.400544
   -0.408547    -0.417542    -0.427852     -0.43985    -0.453985
   -0.470832    -0.491144    -0.516209     -0.54882    -0.597098
   -0.308875    -0.312649    -0.316588    -0.320708    -0.325027
   -0.329564    -0.334345    -0.339399    -0.344786    -0.350591
    -0.35695     -0.36406    -0.372183    -0.381618    -0.392709
   -0.405897    -0.421772    -0.441378    -0.467076     -0.50598
   -0.265714    -0.268684    -0.271763    -0.274959    -0.278283
   -0.281745    -0.285349    -0.289124    -0.293107    -0.297357
   -0.301977    -0.307125    -0.313015    -0.319879    -0.327991
    -0.33769    -0.349445    -0.364136    -0.383772    -0.414388
   -0.219081    -0.221156    -0.223283    -0.225466    -0.227708
   -0.230011    -0.232376    -0.234815    -0.237352     -0.24003
   -0.242928    -0.246175    -0.249947    -0.254425    -0.259824
   -0.266416    -0.274581    -0.285031    -0.299405    -0.322524
   -0.167245    -0.168371    -0.169504    -0.170643     -0.17179
   -0.172945     -0.17411    -0.175289    -0.176495    -0.177761
    -0.17915    -0.180766    -0.182756    -0.185255    -0.188423
   -0.192462    -0.197658    -0.204542    -0.214325    -0.230496
   -0.107667    -0.107942    -0.108207    -0.108465    -0.108716
   -0.108964     -0.10921    -0.109456     -0.10971    -0.109994
   -0.110354    -0.110867     -0.11164    -0.112752    -0.114294
   -0.116391    -0.119218    -0.123102    -0.128788    -0.138371
  -0.0379396   -0.0378584   -0.0377819   -0.0377122   -0.0376511
  -0.0375986   -0.0375527   -0.0375091   -0.0374639   -0.0374198
  -0.0373953   -0.0374307   -0.0375858   -0.0378748   -0.0383174
  -0.0389547   -0.0398459   -0.0411044   -0.0429972   -0.0461958
   0.0379714    0.0378787    0.0377799    0.0376747    0.0375638
   0.0374507     0.037343    0.0372535       0.0372    0.0372006
    0.037267    0.0373986    0.0375856    0.0378748    0.0383177
   0.0389548    0.0398411    0.0410766    0.0428763    0.0459958
    0.107694     0.107959     0.108205     0.108432     0.108639
    0.108832      0.10902     0.109222     0.109466      0.10979
    0.110233     0.110836      0.11164     0.112752     0.114294
    0.116391     0.119214     0.123074     0.128668     0.138171
    0.167269     0.168387     0.169503     0.170614     0.171722
    0.172827      0.17394     0.175077     0.176273     0.177573
    0.179038     0.180737     0.182756     0.185255     0.188423
    0.192463     0.197654     0.204515     0.214205     0.230296
    0.219102     0.221169     0.223282      0.22544     0.227646
    0.229904     0.232222     0.234622     0.237148     0.239857
    0.242824     0.246148     0.249947     0.254425     0.259824
    0.266416     0.274577     0.285004     0.299286     0.322324
    0.265734     0.268696     0.271761     0.274935     0.278226
    0.281646     0.285206     0.288946     0.292918     0.297196
     0.30188       0.3071     0.313015     0.319879     0.327992
     0.33769     0.349441     0.364109     0.383654      0.41419
    0.308894     0.312661     0.316587     0.320685     0.324973
    0.329471      0.33421     0.339231     0.344608      0.35044
     0.35686     0.364036     0.372183     0.381618     0.392709
    0.405897     0.421768     0.441353     0.466961     0.505782
    0.349742     0.354217     0.358902     0.363819     0.368994
    0.374458     0.380255     0.386445     0.393119     0.400401
    0.408461      0.41752     0.427852      0.43985     0.453985
    0.470832      0.49114     0.516184     0.548708     0.596902
    0.389109     0.394193     0.399535     0.405161     0.411106
    0.417412     0.424135     0.431355      0.43918     0.447764
    0.457313     0.468099     0.480464     0.494883      0.51195
    0.532398     0.557189     0.587995     0.628159      0.68714
    0.427644     0.433237     0.439129     0.445351     0.451946
    0.458964     0.466474     0.474572     0.483385       0.4931
    0.503951     0.516261     0.530438     0.547045     0.566789
    0.590576     0.619619     0.656071     0.704207     0.775536
    0.465908     0.471903     0.478229     0.484927     0.492042
    0.499635     0.507785       0.5166      0.52623     0.536879
    0.548827     0.562429     0.578153     0.596642     0.618702
    0.645389     0.678172     0.719659     0.775198     0.859294
    0.504431     0.510707     0.517343     0.524381     0.531876
    0.539893     0.548522     0.557881     0.568139     0.579521
    0.592332     0.606967     0.623939     0.643953     0.667883
    0.696895      0.73262      0.77796     0.838891      0.92821
    0.543767     0.550185     0.556983     0.564209     0.571921
    0.580192     0.589119      0.59883     0.609506     0.621393
    0.634817     0.650203     0.668089     0.689222     0.714508
    0.745144     0.782758     0.830177     0.892532     0.976352
    0.584561     0.590939     0.597721      0.60495     0.612687
     0.62101     0.630024     0.639865     0.650724      0.66286
    0.676616     0.692435     0.710869     0.732665     0.758723
    0.790155     0.828391     0.875524     0.931937     0.993577
    0.627632     0.633736     0.640255      0.64725     0.654772
    0.662901     0.671744     0.681448      0.69221     0.704299
    0.718065     0.733958     0.752524     0.774475     0.800645
    0.831926      0.86931     0.912618     0.963848     0.998617
    0.674065     0.679582     0.685527     0.691954     0.698944
    0.706559     0.714908     0.724141     0.734461     0.746142