Title = ""part1's GridUpp""
variables = "x"
"y"
"z"
ZONE T = "ZONE 001"
STRANDID = 0, SOLUTIONTIME = 0
Nodes=450,Elements=406,datapacking=block
zonetype=fequadrilateral
DATAPACKING=BLOCK
       -5.15     -4.81352     -4.47716     -4.14105     -3.80534
    -3.47017     -3.13567     -2.80198     -2.46922     -2.13752
    -1.80701     -1.47778     -1.14996    -0.823631    -0.498902
   -0.175855     0.145426      0.46487     0.782407      1.09798
     1.41153        1.723      2.03237      2.33959      2.64463
     2.94746      3.24807      3.54643      3.84255      4.13655
    -4.48513      -4.1607     -3.83638      -3.5123     -3.18861
    -2.86544     -2.54291     -2.22116     -1.90032     -1.58049
    -1.26181    -0.944368    -0.628278    -0.313635 -0.000530209
    0.310952     0.620733     0.928741      1.23491      1.53918
     1.84151      2.14184      2.44013      2.73635      3.03047
     3.32246      3.61231      3.89999      4.18551      4.46898
    -3.74824     -3.43716     -3.12618     -2.81544     -2.50507
    -2.19519     -1.88594     -1.57743     -1.26979    -0.963123
    -0.65755    -0.353172   -0.0500884     0.251608     0.551829
    0.850494      1.14753      1.44286      1.73643      2.02819
     2.31807      2.60604      2.89206      3.17609      3.45811
     3.73809      4.01601      4.29185      4.56562      4.83743
     -3.0069     -2.70925      -2.4117     -2.11437      -1.8174
     -1.5209       -1.225    -0.929807    -0.635446    -0.342022
  -0.0496422     0.241595     0.531593     0.820264      1.10752
     1.39329       1.6775      1.96009      2.24099      2.52014
     2.79751      3.07305      3.34672      3.61849      3.88833
     4.15622      4.42214      4.68608      4.94802       5.2081
    -2.26349     -1.97931     -1.69522     -1.41135     -1.12782
   -0.844733    -0.562219    -0.280387  0.000655613     0.280803
    0.559954     0.838013      1.11489       1.3905      1.66476
      1.9376      2.20895      2.47875      2.74694      3.01346
     3.27828      3.54135      3.80264      4.06211      4.31974
     4.57551       4.8294       5.0814      5.33149       5.5798
    -1.51915     -1.24845    -0.977843    -0.707442    -0.437359
   -0.167709       0.1014     0.369859     0.637565     0.904419
     1.17032      1.43519      1.69893      1.96146      2.22271
      2.4826      2.74108      2.99807      3.25353      3.50741
     3.75967      4.01025      4.25914       4.5063      4.75171
     4.99534      5.23718      5.47722      5.71545      5.95198
   -0.774884     -0.51767    -0.260541  -0.00360758     0.253022
    0.509241     0.764946      1.02003      1.27441      1.52797
     1.78063       2.0323       2.2829      2.53236      2.78059
     3.02754      3.27314      3.51734      3.76007      4.00131
       4.241       4.4791      4.71559      4.95044      5.18363
     5.41512      5.64492        5.873      6.09936      6.32411
  -0.0315514     0.212197     0.455864     0.699345     0.942539
     1.18534      1.42766      1.66939      1.91045      2.15073
     2.39017      2.62866      2.86615      3.10254      3.33778
      3.5718      3.80454      4.03595      4.26598      4.49458
     4.72172      4.94736      5.17147      5.39403        5.615
     5.83438      6.05214      6.26829      6.48279      6.69577
    0.709747     0.940065      1.17031      1.40037      1.63017
      1.8596      2.08856      2.31698      2.54475       2.7718
     2.99804      3.22339      3.44779      3.67116      3.89344
     4.11457      4.33448      4.55315       4.7705      4.98651
     5.20113      5.41434      5.62611       5.8364       6.0452
     6.25249      6.45825      6.66249      6.86518      7.06642
       1.448      1.66494      1.88181      2.09852      2.31497
     2.53108      2.74675       2.9619      3.17644      3.39031
     3.60341      3.81568      4.02705      4.23745      4.44682
      4.6551      4.86225      5.06821      5.27295      5.47641
     5.67858       5.8794      6.07887      6.27695      6.47362
     6.66888       6.8627      7.05507      7.24599      7.43555
     2.18403      2.38764      2.59118      2.79457      2.99772
     3.20054      3.40296      3.60488      3.80624      4.00696
     4.20697      4.40619      4.60456      4.80203      4.99853
     5.19402      5.38843      5.58174      5.77389      5.96485
     6.15458      6.34307      6.53027      6.71618      6.90077
     7.08402      7.26592      7.44647      7.62566      7.80357
     2.92117      3.11142      3.30162      3.49166      3.68149
     3.87101      4.06015      4.24883      4.43698      4.62454
     4.81142      4.99758      5.18294      5.36746      5.55107
     5.73374       5.9154      6.09603      6.27558      6.45401
      6.6313      6.80742      6.98235      7.15606      7.32854
     7.49978      7.66975      7.83846      8.00589      8.17213
     3.66203      3.83886      4.01564      4.19228      4.36871
     4.54486      4.72066      4.89603      5.07091      5.24523
     5.41893      5.59196      5.76425      5.93575      6.10641
     6.27618      6.44503      6.61292       6.7798      6.94565
     7.11043      7.27413      7.43672      7.59817      7.75849
     7.91764      8.07562      8.23243      8.38805      8.54256
     4.40565      4.56901      4.73232       4.8955      5.05849
     5.22122      5.38363      5.54564       5.7072      5.86824
     6.02871      6.18855      6.34772      6.50615      6.66381
     6.82065      6.97664      7.13173       7.2859      7.43911
     7.59134      7.74257      7.89277      8.04193      8.19003
     8.33706      8.48301      8.62787      8.77163      8.91437
        5.15      5.29988      5.44971      5.59942      5.74896
     5.89825      6.04725      6.19589      6.34411      6.49186
     6.63908      6.78573      6.93176      7.07711      7.22176
     7.36566      7.50877      7.65106       7.7925      7.93306
     8.07273      8.21147      8.34928      8.48612        8.622
     8.75689      8.89079      9.02369      9.15559      9.28655

           0   -0.0118151   -0.0472448    -0.106235    -0.188693
   -0.294485    -0.423442    -0.575357     -0.74999    -0.947067
    -1.16628     -1.40731      -1.6698     -1.95335     -2.25759
    -2.58208     -2.92641     -3.29013     -3.67278     -4.07392
    -4.49307     -4.92977     -5.38356     -5.85396     -6.34051
    -6.84276     -7.36025     -7.89253     -8.43916           -9
   -0.331084    -0.336804    -0.365993     -0.41861    -0.494576
   -0.593771    -0.716038    -0.861187     -1.02899     -1.21919
    -1.43149     -1.66559     -1.92113     -2.19775     -2.49507
    -2.81267     -3.15015     -3.50707     -3.88298     -4.27744
    -4.68999     -5.12018     -5.56753      -6.0316     -6.51191
    -7.00802     -7.51947     -8.04582     -8.58663     -9.14214
   -0.434325    -0.438143    -0.465386    -0.516016    -0.589958
   -0.687095    -0.807277    -0.950316     -1.11599     -1.30404
    -1.51419     -1.74612      -1.9995     -2.27396     -2.56912
    -2.88458     -3.21992     -3.57471     -3.94853     -4.34091
     -4.7514     -5.17955      -5.6249     -6.08699     -6.56536
    -7.05955     -7.56912     -8.09362     -8.63262     -9.18646
   -0.501835     -0.50441    -0.530381    -0.579712    -0.652329
   -0.748121    -0.866939      -1.0086     -1.17288     -1.35953
    -1.56827     -1.79879     -2.05075     -2.32379     -2.61754
    -2.93159     -3.26554     -3.61895     -3.99139      -4.3824
    -4.79155     -5.21838     -5.66241     -6.12321     -6.60031
    -7.09325     -7.60159     -8.12488     -8.66269     -9.21544
   -0.540742    -0.542601    -0.567839    -0.616421    -0.688275
   -0.783292    -0.901324     -1.04219     -1.20567     -1.39151
    -1.59944     -1.82914     -2.08028     -2.35251     -2.64545
    -2.95869     -3.29183     -3.64444     -4.01609     -4.40632
    -4.81469     -5.24075     -5.68403     -6.14408     -6.62045
    -7.11267      -7.6203      -8.1429     -8.68002     -9.23215
   -0.551163     -0.55283     -0.57787    -0.626252    -0.697902
   -0.792711    -0.910533     -1.05118     -1.21445     -1.40007
    -1.60778     -1.83727     -2.08819      -2.3602     -2.65292
    -2.96595     -3.29887     -3.65127      -4.0227     -4.41273
    -4.82089     -5.24674     -5.68982     -6.14968     -6.62584
    -7.11787     -7.62531     -8.14772     -8.68466     -9.23662
   -0.535937    -0.537885    -0.563213    -0.611887    -0.683836
   -0.778948    -0.897077     -1.03804     -1.20162     -1.38756
    -1.59559     -1.82539     -2.07664     -2.34897       -2.642
    -2.95534     -3.28858     -3.64129     -4.01304     -4.40337
    -4.81184     -5.23799     -5.68136     -6.14151     -6.61796
    -7.11027     -7.61799     -8.14067     -8.67788     -9.23008
    -0.49571    -0.498398    -0.524484    -0.573933     -0.64667
   -0.742584    -0.861526     -1.00331     -1.16772      -1.3545
    -1.56336     -1.79401      -2.0461     -2.31927     -2.61315
    -2.92733      -3.2614     -3.61494      -3.9875     -4.37864
    -4.78791     -5.21485     -5.65901     -6.11992     -6.59713
    -7.09019     -7.59864     -8.12205     -8.65996     -9.21281
   -0.427597    -0.431539    -0.458909    -0.509669    -0.583742
   -0.681014    -0.801332    -0.944508     -1.11032     -1.29851
     -1.5088     -1.74088     -1.99439     -2.26899     -2.56429
    -2.87989     -3.21537     -3.57031     -3.94425     -4.33677
     -4.7474     -5.17568     -5.62116     -6.08338     -6.56187
    -7.05619     -7.56589     -8.09051     -8.62962     -9.18357
   -0.331942    -0.337645    -0.366818    -0.419419    -0.495368
   -0.594545    -0.716796    -0.861927     -1.02971     -1.21989
    -1.43218     -1.66626     -1.92178     -2.19838     -2.49568
    -2.81327     -3.15073     -3.50763     -3.88353     -4.27797
     -4.6905     -5.12067     -5.56801     -6.03206     -6.51235
    -7.00845     -7.51988     -8.04622     -8.58701     -9.14251
   -0.220495    -0.228251    -0.259524    -0.314271    -0.392405
   -0.493803    -0.618305    -0.765714    -0.935798     -1.12829
    -1.34291     -1.57932     -1.83718     -2.11612     -2.41574
    -2.73565     -3.07542     -3.43461     -3.81277     -4.20946
    -4.62422     -5.05658     -5.50608     -5.97226     -6.45466
    -6.95282     -7.46629     -7.99462     -8.53737     -9.09466
   -0.116575    -0.126243    -0.159476    -0.216222    -0.296394
   -0.399864    -0.526465    -0.675998    -0.848226     -1.04288
    -1.25966     -1.49825     -1.75829      -2.0394      -2.3412
    -2.66327     -3.00519     -3.36651     -3.74679     -4.14558
    -4.56241     -4.99681     -5.44833      -5.9165     -6.40086
    -6.90095     -7.41631      -7.9465     -8.49108     -9.05005
  -0.0438488   -0.0548566   -0.0894598    -0.147606    -0.229204
   -0.334123    -0.462194    -0.613213    -0.786941    -0.983107
    -1.20141     -1.44152     -1.70308     -1.98572     -2.28904
    -2.61262     -2.95604     -3.31886     -3.70062     -4.10087
    -4.51915     -4.95499     -5.40792     -5.87748     -6.36321
    -6.86465     -7.38134     -7.91283     -8.45869     -9.01882
 -0.00922141   -0.0208667   -0.0561226    -0.114936    -0.197212
   -0.302821    -0.431592    -0.583318    -0.757761    -0.954646
    -1.17367     -1.41451      -1.6768     -1.96016      -2.2642
    -2.58851     -2.93264     -3.29617     -3.67864     -4.07959
    -4.49856     -4.93508     -5.38868     -5.85891     -6.34529
    -6.84736     -7.36468      -7.8968     -8.44326     -9.00396
           0   -0.0118151   -0.0472448    -0.106235    -0.188693
   -0.294485    -0.423442    -0.575357     -0.74999    -0.947067
    -1.16628     -1.40731      -1.6698     -1.95335     -2.25759
    -2.58208     -2.92641     -3.29013     -3.67278     -4.07392
    -4.49307     -4.92977     -5.38356     -5.85396     -6.34051
    -6.84276     -7.36025     -7.89253     -8.43916           -9

-1.37994e-07      1.08698      2.17359      3.25938      4.34388
     5.42665      6.50725      7.58523       8.6602      9.73174
     10.7995       11.863      12.9221      13.9762      15.0253
     16.0689      17.1068      18.1387      19.1645       20.184
     21.1969      22.2031      23.2025       24.195      25.1804
     26.1587      27.1298      28.0936      29.0502           30
-0.000993356      1.07894      2.15878      3.23808      4.31639
     5.39327      6.46829      7.54101      8.61104      9.67796
     10.7414       11.801      12.8563      13.9072      14.9532
     15.9941      17.0295      18.0594      19.0833      20.1012
     21.1128       22.118      23.1166      24.1085      25.0935
     26.0717      27.0429      28.0071      28.9641      29.9151
 -0.00130305      1.07643      2.15416      3.23144      4.30782
     5.38286      6.45614      7.52723      8.59571      9.66119
     10.7233      11.7816      12.8359      13.8857      14.9307
     15.9707      17.0055      18.0346       19.058      20.0754
     21.0866      22.0914      23.0898      24.0815      25.0665
     26.0446      27.0158        27.98      28.9372      29.8887
 -0.00150556      1.07479      2.15114      3.22709      4.30221
     5.37606       6.4482      7.51821      8.58568      9.65022
     10.7114       11.769      12.8225      13.8716       14.916
     15.9555      16.9897      18.0184      19.0414      20.0585
     21.0694      22.0741      23.0723      24.0639      25.0488
     26.0269      26.9981      27.9624      28.9197      29.8714
 -0.00162226      1.07385       2.1494      3.22459      4.29898
     5.37213      6.44362      7.51301      8.57991       9.6439
     10.7046      11.7617      12.8147      13.8635      14.9076
     15.9467      16.9806      18.0091      19.0319      20.0488
     21.0596      22.0641      23.0622      24.0537      25.0386
     26.0167      26.9879      27.9522      28.9096      29.8614
  -0.0016535      1.07359      2.14893      3.22392      4.29812
     5.37108      6.44239      7.51162      8.57836      9.64221
     10.7028      11.7597      12.8127      13.8613      14.9053
     15.9443      16.9782      18.0066      19.0293      20.0462
     21.0569      22.0614      23.0595       24.051      25.0358
     26.0139      26.9852      27.9495      28.9069      29.8587
  -0.0016078      1.07396      2.14961       3.2249      4.29938
     5.37262      6.44418      7.51366      8.58062      9.64468
     10.7055      11.7626      12.8157      13.8645      14.9086
     15.9478      16.9818      18.0103      19.0331        20.05
     21.0608      22.0653      23.0634      24.0549      25.0398
     26.0179      26.9892      27.9535      28.9108      29.8626
  -0.0014871      1.07494      2.15141      3.22749      4.30272
     5.37667      6.44892      7.51903      8.58659      9.65122
     10.7125      11.7701      12.8237      13.8729      14.9174
     15.9569      16.9911      18.0199      19.0429        20.06
      21.071      22.0756      23.0738      24.0655      25.0504
     26.0285      26.9997       27.964      28.9213      29.8729
 -0.00128275      1.07659      2.15446      3.23187      4.30838
     5.38354      6.45693      7.52812      8.59671      9.66228
     10.7245      11.7829      12.8372      13.8871      14.9322
     15.9723       17.007      18.0362      19.0596      20.0771
     21.0883      22.0932      23.0915      24.0833      25.0682
     26.0464      27.0176      27.9818       28.939      29.8904
-0.000995768      1.07892      2.15874      3.23802      4.31632
     5.39319      6.46819       7.5409      8.61091      9.67782
     10.7412      11.8008      12.8562       13.907       14.953
     15.9939      17.0293      18.0592      19.0831       20.101
     21.1126      22.1177      23.1163      24.1082      25.0933
     26.0715      27.0427      28.0068      28.9639      29.9149
-0.000661416      1.08162      2.16372      3.24519      4.32557
     5.40442       6.4813      7.55579      8.62746      9.69592
     10.7608      11.8217      12.8783      13.9303      14.9773
     16.0191      17.0553      18.0859      19.1104      20.1288
     21.1409      22.1464      23.1453      24.1374      25.1225
     26.1008      27.0719       28.036      28.9929      29.9435
 -0.00034964      1.08415      2.16837      3.25188       4.3342
      5.4149      6.49353      7.56966      8.64289       9.7128
      10.779      11.8412      12.8989      13.9519      14.9999
     16.0425      17.0796      18.1108      19.1359      20.1548
     21.1673      22.1731      23.1722      24.1645      25.1498
     26.1281      27.0992      28.0632      29.0199      29.9701
-0.000131446      1.08591      2.17163      3.25656      4.34024
     5.42223      6.50209      7.57938      8.65369      9.72462
     10.7918      11.8548      12.9134      13.9671      15.0157
      16.059      17.0965      18.1282      19.1538       20.173
     21.1857      22.1918      23.1911      24.1835      25.1689
     26.1472      27.1183      28.0822      29.0388      29.9888
-2.75457e-05      1.08675      2.17318      3.25878      4.34312
     5.42572      6.50616        7.584      8.65883      9.73024
     10.7979      11.8613      12.9202      13.9743      15.0233
     16.0668      17.1046      18.1365      19.1623      20.1817
     21.1945      22.2007      23.2001      24.1925       25.178
     26.1563      27.1274      28.0912      29.0478      29.9976
 1.37994e-07      1.08698      2.17359      3.25938      4.34388
     5.42665      6.50725      7.58523       8.6602      9.73174
     10.7995       11.863      12.9221      13.9762      15.0253
     16.0689      17.1068      18.1387      19.1645       20.184
     21.1969      22.2031      23.2025       24.195      25.1804
     26.1587      27.1298      28.0936      29.0502           30

   3.1000e+01   3.2000e+01   2.0000e+00   1.0000e+00
   3.2000e+01   3.3000e+01   3.0000e+00   2.0000e+00
   3.3000e+01   3.4000e+01   4.0000e+00   3.0000e+00
   3.4000e+01   3.5000e+01   5.0000e+00   4.0000e+00
   3.5000e+01   3.6000e+01   6.0000e+00   5.0000e+00
   3.6000e+01   3.7000e+01   7.0000e+00   6.0000e+00
   3.7000e+01   3.8000e+01   8.0000e+00   7.0000e+00
   3.8000e+01   3.9000e+01   9.0000e+00   8.0000e+00
   3.9000e+01   4.0000e+01   1.0000e+01   9.0000e+00
   4.0000e+01   4.1000e+01   1.1000e+01   1.0000e+01
   4.1000e+01   4.2000e+01   1.2000e+01   1.1000e+01
   4.2000e+01   4.3000e+01   1.3000e+01   1.2000e+01
   4.3000e+01   4.4000e+01   1.4000e+01   1.3000e+01
   4.4000e+01   4.5000e+01   1.5000e+01   1.4000e+01
   4.5000e+01   4.6000e+01   1.6000e+01   1.5000e+01
   4.6000e+01   4.7000e+01   1.7000e+01   1.6000e+01
   4.7000e+01   4.8000e+01   1.8000e+01   1.7000e+01
   4.8000e+01   4.9000e+01   1.9000e+01   1.8000e+01
   4.9000e+01   5.0000e+01   2.0000e+01   1.9000e+01
   5.0000e+01   5.1000e+01   2.1000e+01   2.0000e+01
   5.1000e+01   5.2000e+01   2.2000e+01   2.1000e+01
   5.2000e+01   5.3000e+01   2.3000e+01   2.2000e+01
   5.3000e+01   5.4000e+01   2.4000e+01   2.3000e+01
   5.4000e+01   5.5000e+01   2.5000e+01   2.4000e+01
   5.5000e+01   5.6000e+01   2.6000e+01   2.5000e+01
   5.6000e+01   5.7000e+01   2.7000e+01   2.6000e+01
   5.7000e+01   5.8000e+01   2.8000e+01   2.7000e+01
   5.8000e+01   5.9000e+01   2.9000e+01   2.8000e+01
   5.9000e+01   6.0000e+01   3.0000e+01   2.9000e+01
   6.1000e+01   6.2000e+01   3.2000e+01   3.1000e+01
   6.2000e+01   6.3000e+01   3.3000e+01   3.2000e+01
   6.3000e+01   6.4000e+01   3.4000e+01   3.3000e+01
   6.4000e+01   6.5000e+01   3.5000e+01   3.4000e+01
   6.5000e+01   6.6000e+01   3.6000e+01   3.5000e+01
   6.6000e+01   6.7000e+01   3.7000e+01   3.6000e+01
   6.7000e+01   6.8000e+01   3.8000e+01   3.7000e+01
   6.8000e+01   6.9000e+01   3.9000e+01   3.8000e+01
   6.9000e+01   7.0000e+01   4.0000e+01   3.9000e+01
   7.0000e+01   7.1000e+01   4.1000e+01   4.0000e+01
   7.1000e+01   7.2000e+01   4.2000e+01   4.1000e+01
   7.2000e+01   7.3000e+01   4.3000e+01   4.2000e+01
   7.3000e+01   7.4000e+01   4.4000e+01   4.3000e+01
   7.4000e+01   7.5000e+01   4.5000e+01   4.4000e+01
   7.5000e+01   7.6000e+01   4.6000e+01   4.5000e+01
   7.6000e+01   7.7000e+01   4.7000e+01   4.6000e+01
   7.7000e+01   7.8000e+01   4.8000e+01   4.7000e+01
   7.8000e+01   7.9000e+01   4.9000e+01   4.8000e+01
   7.9000e+01   8.0000e+01   5.0000e+01   4.9000e+01
   8.0000e+01   8.1000e+01   5.1000e+01   5.0000e+01
   8.1000e+01   8.2000e+01   5.2000e+01   5.1000e+01
   8.2000e+01   8.3000e+01   5.3000e+01   5.2000e+01
   8.3000e+01   8.4000e+01   5.4000e+01   5.3000e+01
   8.4000e+01   8.5000e+01   5.5000e+01   5.4000e+01
   8.5000e+01   8.6000e+01   5.6000e+01   5.5000e+01
   8.6000e+01   8.7000e+01   5.7000e+01   5.6000e+01
   8.7000e+01   8.8000e+01   5.8000e+01   5.7000e+01
   8.8000e+01   8.9000e+01   5.9000e+01   5.8000e+01
   8.9000e+01   9.0000e+01   6.0000e+01   5.9000e+01
   9.1000e+01   9.2000e+01   6.2000e+01   6.1000e+01
   9.2000e+01   9.3000e+01   6.3000e+01   6.2000e+01
   9.3000e+01   9.4000e+01   6.4000e+01   6.3000e+01
   9.4000e+01   9.5000e+01   6.5000e+01   6.4000e+01
   9.5000e+01   9.6000e+01   6.6000e+01   6.5000e+01
   9.6000e+01   9.7000e+01   6.7000e+01   6.6000e+01
   9.7000e+01   9.8000e+01   6.8000e+01   6.7000e+01
   9.8000e+01   9.9000e+01   6.9000e+01   6.8000e+01
   9.9000e+01   1.0000e+02   7.0000e+01   6.9000e+01
   1.0000e+02   1.0100e+02   7.1000e+01   7.0000e+01
   1.0100e+02   1.0200e+02   7.2000e+01   7.1000e+01
   1.0200e+02   1.0300e+02   7.3000e+01   7.2000e+01
   1.0300e+02   1.0400e+02   7.4000e+01   7.3000e+01
   1.0400e+02   1.0500e+02   7.5000e+01   7.4000e+01
   1.0500e+02   1.0600e+02   7.6000e+01   7.5000e+01
   1.0600e+02   1.0700e+02   7.7000e+01   7.6000e+01
   1.0700e+02   1.0800e+02   7.8000e+01   7.7000e+01
   1.0800e+02   1.0900e+02   7.9000e+01   7.8000e+01
   1.0900e+02   1.1000e+02   8.0000e+01   7.9000e+01
   1.1000e+02   1.1100e+02   8.1000e+01   8.0000e+01
   1.1100e+02   1.1200e+02   8.2000e+01   8.1000e+01
   1.1200e+02   1.1300e+02   8.3000e+01   8.2000e+01
   1.1300e+02   1.1400e+02   8.4000e+01   8.3000e+01
   1.1400e+02   1.1500e+02   8.5000e+01   8.4000e+01
   1.1500e+02   1.1600e+02   8.6000e+01   8.5000e+01
   1.1600e+02   1.1700e+02   8.7000e+01   8.6000e+01
   1.1700e+02   1.1800e+02   8.8000e+01   8.7000e+01
   1.1800e+02   1.1900e+02   8.9000e+01   8.8000e+01
   1.1900e+02   1.2000e+02   9.0000e+01   8.9000e+01
   1.2100e+02   1.2200e+02   9.2000e+01   9.1000e+01
   1.2200e+02   1.2300e+02   9.3000e+01   9.2000e+01
   1.2300e+02   1.2400e+02   9.4000e+01   9.3000e+01
   1.2400e+02   1.2500e+02   9.5000e+01   9.4000e+01
   1.2500e+02   1.2600e+02   9.6000e+01   9.5000e+01
   1.2600e+02   1.2700e+02   9.7000e+01   9.6000e+01
   1.2700e+02   1.2800e+02   9.8000e+01   9.7000e+01
   1.2800e+02   1.2900e+02   9.9000e+01   9.8000e+01
   1.2900e+02   1.3000e+02   1.0000e+02   9.9000e+01
   1.3000e+02   1.3100e+02   1.0100e+02   1.0000e+02
   1.3100e+02   1.3200e+02   1.0200e+02   1.0100e+02
   1.3200e+02   1.3300e+02   1.0300e+02   1.0200e+02
   1.3300e+02   1.3400e+02   1.0400e+02   1.0300e+02
   1.3400e+02   1.3500e+02   1.0500e+02   1.0400e+02
   1.3500e+02   1.3600e+02   1.0600e+02   1.0500e+02
   1.3600e+02   1.3700e+02   1.0700e+02   1.0600e+02
   1.3700e+02   1.3800e+02   1.0800e+02   1.0700e+02
   1.3800e+02   1.3900e+02   1.0900e+02   1.0800e+02
   1.3900e+02   1.4000e+02   1.1000e+02   1.0900e+02
   1.4000e+02   1.4100e+02   1.1100e+02   1.1000e+02
   1.4100e+02   1.4200e+02   1.1200e+02   1.1100e+02
   1.4200e+02   1.4300e+02   1.1300e+02   1.1200e+02
   1.4300e+02   1.4400e+02   1.1400e+02   1.1300e+02
   1.4400e+02   1.4500e+02   1.1500e+02   1.1400e+02
   1.4500e+02   1.4600e+02   1.1600e+02   1.1500e+02
   1.4600e+02   1.4700e+02   1.1700e+02   1.1600e+02
   1.4700e+02   1.4800e+02   1.1800e+02   1.1700e+02
   1.4800e+02   1.4900e+02   1.1900e+02   1.1800e+02
   1.4900e+02   1.5000e+02   1.2000e+02   1.1900e+02
   1.5100e+02   1.5200e+02   1.2200e+02   1.2100e+02
   1.5200e+02   1.5300e+02   1.2300e+02   1.2200e+02
   1.5300e+02   1.5400e+02   1.2400e+02   1.2300e+02
   1.5400e+02   1.5500e+02   1.2500e+02   1.2400e+02
   1.5500e+02   1.5600e+02   1.2600e+02   1.2500e+02
   1.5600e+02   1.5700e+02   1.2700e+02   1.2600e+02
   1.5700e+02   1.5800e+02   1.2800e+02   1.2700e+02
   1.5800e+02   1.5900e+02   1.2900e+02   1.2800e+02
   1.5900e+02   1.6000e+02   1.3000e+02   1.2900e+02
   1.6000e+02   1.6100e+02   1.3100e+02   1.3000e+02
   1.6100e+02   1.6200e+02   1.3200e+02   1.3100e+02
   1.6200e+02   1.6300e+02   1.3300e+02   1.3200e+02
   1.6300e+02   1.6400e+02   1.3400e+02   1.3300e+02
   1.6400e+02   1.6500e+02   1.3500e+02   1.3400e+02
   1.6500e+02   1.6600e+02   1.3600e+02   1.3500e+02
   1.6600e+02   1.6700e+02   1.3700e+02   1.3600e+02
   1.6700e+02   1.6800e+02   1.3800e+02   1.3700e+02
   1.6800e+02   1.6900e+02   1.3900e+02   1.3800e+02
   1.6900e+02   1.7000e+02   1.4000e+02   1.3900e+02
   1.7000e+02   1.7100e+02   1.4100e+02   1.4000e+02
   1.7100e+02   1.7200e+02   1.4200e+02   1.4100e+02
   1.7200e+02   1.7300e+02   1.4300e+02   1.4200e+02
   1.7300e+02   1.7400e+02   1.4400e+02   1.4300e+02
   1.7400e+02   1.7500e+02   1.4500e+02   1.4400e+02
   1.7500e+02   1.7600e+02   1.4600e+02   1.4500e+02
   1.7600e+02   1.7700e+02   1.4700e+02   1.4600e+02
   1.7700e+02   1.7800e+02   1.4800e+02   1.4700e+02
   1.7800e+02   1.7900e+02   1.4900e+02   1.4800e+02
   1.7900e+02   1.8000e+02   1.5000e+02   1.4900e+02
   1.8100e+02   1.8200e+02   1.5200e+02   1.5100e+02
   1.8200e+02   1.8300e+02   1.5300e+02   1.5200e+02
   1.8300e+02   1.8400e+02   1.5400e+02   1.5300e+02
   1.8400e+02   1.8500e+02   1.5500e+02   1.5400e+02
   1.8500e+02   1.8600e+02   1.5600e+02   1.5500e+02
   1.8600e+02   1.8700e+02   1.5700e+02   1.5600e+02
   1.8700e+02   1.8800e+02   1.5800e+02   1.5700e+02
   1.8800e+02   1.8900e+02   1.5900e+02   1.5800e+02
   1.8900e+02   1.9000e+02   1.6000e+02   1.5900e+02
   1.9000e+02   1.9100e+02   1.6100e+02   1.6000e+02
   1.9100e+02   1.9200e+02   1.6200e+02   1.6100e+02
   1.9200e+02   1.9300e+02   1.6300e+02   1.6200e+02
   1.9300e+02   1.9400e+02   1.6400e+02   1.6300e+02
   1.9400e+02   1.9500e+02   1.6500e+02   1.6400e+02
   1.9500e+02   1.9600e+02   1.6600e+02   1.6500e+02
   1.9600e+02   1.9700e+02   1.6700e+02   1.6600e+02
   1.9700e+02   1.9800e+02   1.6800e+02   1.6700e+02
   1.9800e+02   1.9900e+02   1.6900e+02   1.6800e+02
   1.9900e+02   2.0000e+02   1.7000e+02   1.6900e+02
   2.0000e+02   2.0100e+02   1.7100e+02   1.7000e+02
   2.0100e+02   2.0200e+02   1.7200e+02   1.7100e+02
   2.0200e+02   2.0300e+02   1.7300e+02   1.7200e+02
   2.0300e+02   2.0400e+02   1.7400e+02   1.7300e+02
   2.0400e+02   2.0500e+02   1.7500e+02   1.7400e+02
   2.0500e+02   2.0600e+02   1.7600e+02   1.7500e+02
   2.0600e+02   2.0700e+02   1.7700e+02   1.7600e+02
   2.0700e+02   2.0800e+02   1.7800e+02   1.7700e+02
   2.0800e+02   2.0900e+02   1.7900e+02   1.7800e+02
   2.0900e+02   2.1000e+02   1.8000e+02   1.7900e+02
   2.1100e+02   2.1200e+02   1.8200e+02   1.8100e+02
   2.1200e+02   2.1300e+02   1.8300e+02   1.8200e+02
   2.1300e+02   2.1400e+02   1.8400e+02   1.8300e+02
   2.1400e+02   2.1500e+02   1.8500e+02   1.8400e+02
   2.1500e+02   2.1600e+02   1.8600e+02   1.8500e+02
   2.1600e+02   2.1700e+02   1.8700e+02   1.8600e+02
   2.1700e+02   2.1800e+02   1.8800e+02   1.8700e+02
   2.1800e+02   2.1900e+02   1.8900e+02   1.8800e+02
   2.1900e+02   2.2000e+02   1.9000e+02   1.8900e+02
   2.2000e+02   2.2100e+02   1.9100e+02   1.9000e+02
   2.2100e+02   2.2200e+02   1.9200e+02   1.9100e+02
   2.2200e+02   2.2300e+02   1.9300e+02   1.9200e+02
   2.2300e+02   2.2400e+02   1.9400e+02   1.9300e+02
   2.2400e+02   2.2500e+02   1.9500e+02   1.9400e+02
   2.2500e+02   2.2600e+02   1.9600e+02   1.9500e+02
   2.2600e+02   2.2700e+02   1.9700e+02   1.9600e+02
   2.2700e+02   2.2800e+02   1.9800e+02   1.9700e+02
   2.2800e+02   2.2900e+02   1.9900e+02   1.9800e+02
   2.2900e+02   2.3000e+02   2.0000e+02   1.9900e+02
   2.3000e+02   2.3100e+02   2.0100e+02   2.0000e+02
   2.3100e+02   2.3200e+02   2.0200e+02   2.0100e+02
   2.3200e+02   2.3300e+02   2.0300e+02   2.0200e+02
   2.3300e+02   2.3400e+02   2.0400e+02   2.0300e+02
   2.3400e+02   2.3500e+02   2.0500e+02   2.0400e+02
   2.3500e+02   2.3600e+02   2.0600e+02   2.0500e+02
   2.3600e+02   2.3700e+02   2.0700e+02   2.0600e+02
   2.3700e+02   2.3800e+02   2.0800e+02   2.0700e+02
   2.3800e+02   2.3900e+02   2.0900e+02   2.0800e+02
   2.3900e+02   2.4000e+02   2.1000e+02   2.0900e+02
   2.4100e+02   2.4200e+02   2.1200e+02   2.1100e+02
   2.4200e+02   2.4300e+02   2.1300e+02   2.1200e+02
   2.4300e+02   2.4400e+02   2.1400e+02   2.1300e+02
   2.4400e+02   2.4500e+02   2.1500e+02   2.1400e+02
   2.4500e+02   2.4600e+02   2.1600e+02   2.1500e+02
   2.4600e+02   2.4700e+02   2.1700e+02   2.1600e+02
   2.4700e+02   2.4800e+02   2.1800e+02   2.1700e+02
   2.4800e+02   2.4900e+02   2.1900e+02   2.1800e+02
   2.4900e+02   2.5000e+02   2.2000e+02   2.1900e+02
   2.5000e+02   2.5100e+02   2.2100e+02   2.2000e+02
   2.5100e+02   2.5200e+02   2.2200e+02   2.2100e+02
   2.5200e+02   2.5300e+02   2.2300e+02   2.2200e+02
   2.5300e+02   2.5400e+02   2.2400e+02   2.2300e+02
   2.5400e+02   2.5500e+02   2.2500e+02   2.2400e+02
   2.5500e+02   2.5600e+02   2.2600e+02   2.2500e+02
   2.5600e+02   2.5700e+02   2.2700e+02   2.2600e+02
   2.5700e+02   2.5800e+02   2.2800e+02   2.2700e+02
   2.5800e+02   2.5900e+02   2.2900e+02   2.2800e+02
   2.5900e+02   2.6000e+02   2.3000e+02   2.2900e+02
   2.6000e+02   2.6100e+02   2.3100e+02   2.3000e+02
   2.6100e+02   2.6200e+02   2.3200e+02   2.3100e+02
   2.6200e+02   2.6300e+02   2.3300e+02   2.3200e+02
   2.6300e+02   2.6400e+02   2.3400e+02   2.3300e+02
   2.6400e+02   2.6500e+02   2.3500e+02   2.3400e+02
   2.6500e+02   2.6600e+02   2.3600e+02   2.3500e+02
   2.6600e+02   2.6700e+02   2.3700e+02   2.3600e+02
   2.6700e+02   2.6800e+02   2.3800e+02   2.3700e+02
   2.6800e+02   2.6900e+02   2.3900e+02   2.3800e+02