Title = ""part1's GridUpp""
variables = "x"
"y"
"z"
ZONE T = "ZONE 001"
STRANDID = 0, SOLUTIONTIME = 0
Nodes=900,Elements=841,datapacking=block
zonetype=fequadrilateral
DATAPACKING=BLOCK
           0      2.31512      19.9083      63.6925      123.404
     199.362      278.118      356.484      432.414      506.418
     578.438      648.802      718.143      787.175      856.429
     926.423       997.64      1070.83      1146.16      1223.89
     1304.13      1387.15      1473.08      1562.02      1654.01
     1749.07      1847.21      1948.42      2052.69         2160
           0     -7.13078     -2.45887      29.0342      77.0854
     143.855        215.3      288.191      359.243      429.462
     499.206      568.822      637.994      707.788      778.875
     851.661      926.488      1003.76      1083.75      1166.68
     1252.58      1341.63      1433.94      1529.52      1628.36
     1730.46      1835.78      1944.27       2055.9      2170.62
           0     -12.9587     -19.4878    0.0193169      37.5278
       95.38      159.903      227.662      294.721      362.212
     430.612      500.199      570.227      641.852      715.721
     792.119      871.263      953.434      1038.85      1127.66
     1219.81      1315.44      1414.56      1517.17       1623.2
     1732.59      1845.29      1961.21      2080.27      2202.41
           0     -17.2609       -33.22     -24.8744      3.08163
     52.6139      110.927      174.335      238.459      304.374
      372.53      443.083      515.069      589.611      667.255
     748.156      832.336      920.194      1011.77      1107.13
     1206.12      1308.81      1415.18      1525.16      1638.64
     1755.54      1875.74      1999.15      2125.67      2255.19
           0     -20.6309     -44.4265     -46.0216      -26.391
     15.7617      68.8141      128.763      191.063      256.578
     325.594      397.885      472.833      551.328      633.689
      719.94      810.068      904.421      1002.89      1105.42
     1211.79      1322.01      1436.03       1553.7      1674.89
     1799.48      1927.33      2058.31      2192.29      2329.16
           0     -23.3637      -53.631     -63.7182     -51.1175
    -15.2572      33.5095      90.9141      152.443      218.659
     289.591      365.017      444.106      527.586      615.607
      708.05      804.781      906.238      1012.12      1122.27
     1236.37       1354.4      1476.24      1601.73      1730.69
     1862.96      1998.37      2136.78      2278.05      2422.06
           0     -25.6206     -61.2496      -78.462      -71.598
    -40.7584      4.90986      60.8942      122.817      190.901
     264.859      344.239       428.43      517.878      612.462
     711.904      815.966      925.216      1039.13      1157.43
     1279.71      1405.95      1535.95      1669.52      1806.45
     1946.54      2089.62       2235.5      2384.02      2535.06
           0     -27.4972     -67.5646     -90.6532     -88.3173
    -61.2169     -17.4313      38.3008      101.775      172.869
     250.949      335.324      425.617      521.963      623.962
     731.179      843.278      960.954      1083.45      1210.37
     1341.23      1475.96      1614.34      1756.14      1901.11
     2049.04      2199.71      2352.95      2508.57      2666.43
           0     -29.0533     -72.7708     -100.604     -101.682
    -77.0728     -33.9616      22.7009      88.8671       164.08
     247.359      337.773      435.139      539.278      649.521
     765.274      886.093      1012.78      1144.36      1280.32
     1420.11       1563.6      1710.55      1860.69      2013.75
      2169.5      2327.71      2488.17      2650.72      2815.18
           0     -30.3306     -77.0054     -108.554     -112.017
    -88.7038     -45.0917      13.6705      83.6334      164.031
     253.552      351.027      456.391      569.168      688.435
     813.443      943.628      1079.86      1220.96      1366.32
     1515.32      1667.79      1823.46      1982.03      2143.21
     2306.74      2472.38      2639.92      2809.17      2979.98
           0      -31.358     -80.3665     -114.682     -119.576
    -96.4226     -51.1789      10.8193      85.6363      172.229
     268.981      374.501      488.726      610.917      739.926
     874.852      1014.99      1161.23      1312.22      1467.28
      1625.7      1787.29      1951.76      2118.76      2287.99
     2459.18      2632.08      2806.47      2982.17         3159
           0     -32.1563     -82.9247     -119.124     -124.554
    -100.479     -52.5235      13.8029      94.4767      188.211
     293.119      407.606      531.479      663.777      803.162
     948.587      1099.22      1255.85      1417.01      1581.96
     1749.94      1920.72      2093.96      2269.32      2446.47
     2625.13      2805.04      2985.98      3167.76      3350.23
           0       -32.74     -84.7304     -121.977     -127.096
    -101.069     -49.3683      22.3288      109.803      211.559
     325.477      449.776      584.001      727.008      877.308
     1033.71      1195.26      1362.55      1534.07      1709.02
     1886.58       2066.5      2248.42      2431.97       2616.8
     2802.64      2989.22      3176.32      3363.77      3551.39
           0      -33.119     -85.8183     -123.312     -127.307
    -98.3372      -41.905      36.1538       131.31      241.897
     365.599      500.465      645.647      799.861      961.505
     1129.25      1302.02      1480.13      1662.06      1846.99
     2034.04      2222.94       2413.3      2604.74      2796.91
     2989.51      3182.31      3375.07      3567.63      3759.84
           0     -33.2996       -86.21     -123.171     -125.257
    -92.3871     -30.2776      55.0813       158.74      278.893
     413.066      559.154       715.79      881.595      1054.89
     1234.21      1418.35       1607.3      1799.56      1994.32
     2190.63      2388.21      2586.65      2785.56      2984.58
     3183.42      3381.85      3579.66      3776.68      3972.76
           0     -33.2846      -85.916     -121.579     -120.984
    -83.2833     -14.5882       78.956      191.872      322.251
     467.489      625.339      793.809      971.466      1156.58
     1347.57      1543.09      1742.74      1945.11      2149.38
     2354.58      2560.39      2766.41      2972.21      3177.47
     3381.89      3585.24      3787.35      3988.04      4187.19
           0     -33.0742     -84.9368     -118.539     -114.499
     -71.058      5.09451      107.654      230.515      371.696
     528.493      698.521       879.08      1068.72      1265.68
     1468.26      1674.99      1885.06      2097.15      2310.49
     2524.03      2737.48      2950.41      3162.41      3373.15
     3582.35       3789.8      3995.33      4198.81      4400.12
           0     -32.6652     -83.2623     -114.033     -105.786
    -55.7089      28.7391      141.084      274.505      426.979
     595.719      778.204      970.969      1172.57      1381.25
     1595.19      1812.78      2032.81      2254.09      2475.87
     2697.08      2917.43      3136.47      3353.82      3569.15
     3782.22      3992.82      4200.82       4406.1      4608.56
           0     -32.0517     -80.8715     -108.025     -94.7973
    -37.1989       56.348      179.186      323.701       487.86
     668.807      863.877      1068.82      1282.22      1502.33
      1727.2      1955.12       2184.5      2414.27      2643.72
     2871.78      3098.13      3322.38      3544.12      3763.06
     3978.97       4191.7      4401.13      4607.16      4809.73
           0     -31.2235     -77.7304     -100.451     -81.4551
    -15.4578      87.9522      221.912      377.965      554.092
     747.372      954.984      1171.91      1396.78      1627.86
     1863.08      2100.61      2338.55      2575.97      2812.19
     3046.13       3277.5       3505.9      3730.97      3952.45
     4170.13       4383.9      4593.66      4799.36      5000.96
           0     -30.1663     -73.7896     -91.2242      -65.646
     9.61858      123.607      269.226      437.152      625.406
     830.995      1050.93      1279.47      1515.33      1756.73
     2001.53      2247.73      2493.32      2737.42      2979.38
     3218.13      3453.42      3684.87      3912.16      4135.06
      4353.4      4567.11      4776.12      4980.41      5179.99
           0     -28.8593     -68.9797     -80.2212     -47.2167
     38.1687      163.387      321.087      501.092      701.484
     919.181         1151      1390.62      1636.79      1887.71
     2141.13      2394.96      2647.14      2896.82      3143.41
     3385.83      3623.88      3857.23      4085.59      4308.77
     4526.66       4739.2      4946.39      5148.24      5344.79
           0     -27.2736      -63.204     -67.2786     -25.9666
     70.3618      207.368      377.415      569.545      781.914
     1011.32      1254.38      1504.35      1759.98      2019.44
     2280.38      2540.65      2798.25      3052.35      3302.36
     3547.26      3786.88      4020.93      4249.18       4471.5
     4687.83      4898.15       5102.5      5300.94      5493.54
           0     -25.3675     -56.3278     -52.1804     -1.64729
     106.385      255.602      438.071       642.18      866.167
     1106.68      1360.11       1619.5      1883.58      2150.45
     2417.63      2683.05      2944.83      3202.11      3454.31
     3700.46      3940.43      4174.03      4401.06      4621.46
      4835.2      5042.33      5242.92      5437.08      5624.91
           0     -23.0813       -48.16      -34.649      26.0417
     146.424      308.087      502.805      718.526       953.56
     1204.36      1467.09      1734.81      2006.13         2279
        2551      2820.15       3084.8      3343.99      3597.14
     3843.35      4082.57      4314.65      4539.47      4756.98
     4967.24      5170.33      5366.37      5555.53      5738.04
           0     -20.3196     -38.4246     -14.3773      57.2525
     190.121      363.758       569.71      795.915      1040.71
     1300.25      1570.48      1844.91      2122.01      2399.57
     2675.17      2946.84      3213.03      3472.82       3725.7
     3970.81      4208.19      4437.74       4659.4       4873.2
     5079.22       5277.6      5468.52      5652.15      5828.72
           0     -16.9211      -26.763      9.05048        92.78
     238.919      425.037      642.341       879.04      1133.42
     1401.34      1678.54      1959.02      2241.04      2522.26
     2800.23      3072.86       3339.4      3598.66      3850.11
     4092.96      4327.35      4553.24      4770.64      4979.64
     5180.38      5373.04      5557.84      5735.02      5904.81
           0     -12.6072     -12.2997      36.2859      132.185
     290.486      487.512      714.575      960.191      1222.51
     1497.04      1779.41      2064.23      2349.54      2632.81
     2911.67      3184.34      3450.03      3707.58      3956.53
     4196.17       4426.7      4648.17      4860.64      5064.27
     5259.25       5445.8       5624.2       5794.7      5957.59
           0      -6.7397      4.83403       66.411      174.757
     344.699       551.75      787.194      1040.44      1309.35
     1589.05      1875.04      2162.78      2449.97      2733.94
     3012.36      3283.58      3547.22         3802      4047.47
     4283.01      4508.89      4725.22      4932.13      5129.81
     5318.52      5498.52      5670.13      5833.65      5989.38
           0      2.72056      27.3586      101.623      222.326
     402.364       617.76      859.759      1119.11      1393.11
     1676.35      1964.26      2253.41      2541.08      2824.36
     3101.03      3369.55      3630.05      3881.05      4122.11
      4352.7      4573.16      4783.67      4984.41      5175.64
     5357.64      5530.74      5695.27      5851.58         6000

           0      2.51784      23.6335      82.6577      172.865
     300.863      447.939      608.121      775.762      949.762
      1127.4      1306.53      1485.78      1664.13      1840.39
     2013.73       2183.6      2350.44      2513.61         2673
     2828.42      2980.16      3128.38      3273.22      3414.82
     3553.35      3688.97      3821.85      3952.14         4080
           0      11.9709      46.0803       117.61      219.912
      357.83      513.323      680.526      855.199      1035.81
     1219.17      1403.09      1587.34      1770.46      1951.01
     2128.14      2301.39      2471.77      2638.31      2800.86
     2959.23      3113.75       3264.6      3411.94      3555.91
      3696.7      3834.49      3969.44      4101.72       4231.5
           0       17.811      63.2827      147.329      261.175
     409.559      574.041      748.967      930.938      1118.31
     1307.68      1496.83      1686.24      1874.23      2059.18
     2240.31      2417.19      2591.18      2761.14      2926.89
     3088.27      3245.64      3399.19      3549.08      3695.48
     3838.57      3978.54      4115.57      4249.84      4381.51
           0      22.1269      77.2383      173.215      298.077
     457.078      630.755      813.639      1002.96       1197.1
     1392.55      1587.06      1781.66      1974.52      2163.93
      2349.1      2529.94      2707.62      2881.03      3050.01
      3214.4       3374.6      3530.82      3683.24      3832.05
     3977.44       4119.6      4258.71      4394.98      4528.58
           0      25.5111      88.6956      195.553      330.561
     499.872      682.599      873.486      1070.03      1270.82
     1472.29      1672.68      1872.66      2070.48      2264.51
     2454.01      2638.64      2819.98      2996.85      3169.08
     3336.52      3499.59      3658.53      3813.54       3964.8
     4112.53      4256.92      4398.17      4536.48      4672.03
           0      28.2583      98.1659      214.567       358.68
     537.729      729.248      928.106      1131.79      1339.14
     1546.68       1752.2      1957.11      2159.64      2358.04
     2551.57      2739.93      2924.84      3105.09      3280.48
     3450.91       3616.8      3778.41      3935.95      4089.63
     4239.67      4386.26      4529.62      4669.96       4807.5
           0      30.5299      106.059      230.713      382.818
      570.72      770.401      976.812      1187.23       1400.8
     1614.14       1825.1         2035      2242.13      2444.79
     2642.29      2834.41      3022.88      3206.47      3385.02
     3558.43      3727.17      3891.49      4051.61      4207.76
     4360.15      4509.01      4654.54      4796.96      4936.47
           0      32.4212      112.655      244.364      403.383
     599.152      806.221       1019.6      1236.24      1455.56
     1674.36      1890.53      2105.15      2316.68      2523.48
     2724.89      2920.69      3112.59      3299.42      3481.03
     3657.34      3828.82      3995.75      4158.37       4316.9
     4471.58      4622.62      4770.26      4914.71      5056.18
           0      33.9921      118.146      255.816      420.729
     623.338      836.932      1056.58      1278.81      1503.33
     1727.12      1948.13      2167.12      2382.71      2593.39
      2798.5      2997.81      3192.95      3382.83      3567.35
     3746.41      3920.51      4089.95      4254.95      4415.77
     4572.64       4725.8      4875.47      5021.89      5165.27
           0      35.2842      122.669      265.298      435.143
     643.564      862.771      1087.88         1315      1544.09
     1772.31      1997.68      2220.58      2439.82      2654.02
      2862.5      3065.05      3263.16      3455.83      3643.01
     3824.62      4001.15      4172.92      4340.16      4503.12
     4662.06      4817.22      4968.82       5117.1      5262.28
           0      36.3265       126.32      272.979      446.853
     660.073      883.956      1113.66      1344.91      1577.88
     1809.89      2039.04      2265.32      2487.72      2704.98
     2916.44      3121.85      3322.57       3517.7      3707.24
     3891.11      4069.81      4243.65       4412.9      4577.79
      4738.6      4895.55       5048.9      5198.88      5345.71
           0      37.1397       129.17       278.99      456.033
     673.059      900.679      1134.09      1368.68      1604.78
     1839.88      2072.14       2301.2       2526.2         2746
     2959.94      3167.78      3370.68      3567.87      3759.39
     3945.17      4125.71      4301.32      4472.26       4638.8
      4801.2       4959.7      5114.55      5265.99      5414.24
           0      37.7384      131.268      283.423      462.813
     682.673       913.09       1149.3       1386.4      1624.88
     1862.33      2096.97      2328.15      2555.15       2776.9
     2992.77      3202.49      3407.09      3605.89      3798.96
     3986.23       4168.2       4345.2      4517.49      4685.33
     4848.98      5008.71      5164.75      5317.36      5466.75
           0      38.1323      132.649      286.344      467.285
     689.024      921.303      1159.38      1398.16      1638.24
     1877.27      2113.51      2346.14      2574.49      2797.56
     3014.74      3225.75      3431.51      3631.41      3825.54
     4013.84       4196.8      4374.76      4547.98      4716.72
     4881.24      5041.82       5198.7      5352.11       5502.3
           0      38.3278      133.335      287.795      469.507
     692.183      925.392       1164.4      1404.03       1644.9
     1884.73      2121.79      2355.14      2584.17      2807.91
     3025.76      3237.42      3443.77      3644.23       3838.9
     4027.72      4211.19      4389.63      4563.32      4732.52
      4897.5      5058.51      5215.81      5369.65      5520.25
           0      38.3278      133.335      287.795      469.507
     692.183      925.392       1164.4      1404.03       1644.9
     1884.73      2121.79      2355.14      2584.17      2807.92
     3025.76      3237.42      3443.77      3644.23       3838.9
     4027.72      4211.19      4389.64      4563.33      4732.53
      4897.5      5058.51      5215.82      5369.65      5520.25
           0      38.1323      132.649      286.344      467.285
     689.024      921.304      1159.38      1398.16      1638.24
     1877.27      2113.52      2346.14      2574.49      2797.57
     3014.75      3225.76      3431.52      3631.42      3825.55
     4013.84      4196.81      4374.77      4547.98      4716.72
     4881.25      5041.83       5198.7      5352.12      5502.31
           0      37.7383      131.268      283.422      462.812
     682.673      913.092       1149.3       1386.4      1624.88
     1862.34      2096.97      2328.16      2555.16      2776.91
     2992.78       3202.5      3407.09       3605.9      3798.97
     3986.24      4168.21      4345.21       4517.5      4685.34
     4848.99      5008.72      5164.76      5317.37      5466.76
           0      37.1397      129.169      278.989      456.032
     673.059      900.681       1134.1      1368.68      1604.79
     1839.89      2072.15      2301.21      2526.21      2746.01
     2959.95      3167.79      3370.69      3567.88      3759.41
     3945.18      4125.72      4301.33      4472.28      4638.82
     4801.21      4959.71      5114.56         5266      5414.25
           0      36.3264       126.32      272.978      446.852
     660.073      883.959      1113.67      1344.92      1577.89
      1809.9      2039.05      2265.33      2487.73      2704.99
     2916.45      3121.87      3322.58      3517.71      3707.25
     3891.13      4069.83      4243.67      4412.91      4577.81
     4738.61      4895.57      5048.92      5198.89      5345.72
           0       35.284      122.668      265.296      435.141
     643.565      862.775      1087.88         1315       1544.1
     1772.32      1997.69       2220.6      2439.84      2654.04
     2862.52      3065.07      3263.18      3455.85      3643.03
     3824.64      4001.17      4172.94      4340.18      4503.14
     4662.08      4817.24      4968.84      5117.12       5262.3
           0      33.9919      118.146      255.815      420.727
     623.339      836.936      1056.59      1278.82      1503.34
     1727.13      1948.15      2167.14      2382.73      2593.42
     2798.52      2997.83      3192.98      3382.85      3567.37
     3746.44      3920.54      4089.97      4254.97      4415.79
     4572.66      4725.82       4875.5      5021.92      5165.29
           0       32.421      112.655      244.362      403.381
     599.153      806.226      1019.61      1236.25      1455.58
     1674.38      1890.55      2105.18       2316.7      2523.51
     2724.91      2920.71      3112.62      3299.44      3481.06
     3657.37      3828.84      3995.78       4158.4      4316.93
      4471.6      4622.65      4770.29      4914.73       5056.2
           0      30.5296      106.059      230.711      382.816
     570.721      770.407      976.822      1187.24      1400.81
     1614.16      1825.12      2035.03      2242.16      2444.81
     2642.32      2834.44      3022.91       3206.5      3385.05
     3558.46       3727.2      3891.52      4051.64      4207.79
     4360.18      4509.04      4654.57      4796.98       4936.5
           0       28.258      98.1653      214.565      358.678
      537.73      729.255      928.117      1131.81      1339.16
      1546.7      1752.22      1957.14      2159.67      2358.09
     2551.66      2740.05      2924.97      3105.22      3280.61
     3451.04      3616.92      3778.53      3936.07      4089.74
     4239.77      4386.36      4529.71      4670.02      4807.37
           0      25.5107      88.6948      195.589      330.718
     500.302      683.398      874.733      1071.69      1272.85
     1474.73       1675.1      1875.18      2073.15      2267.27
     2456.79      2641.37      2822.81      2999.79      3172.11
     3339.64      3502.79      3661.79      3816.86      3968.18
     4115.96       4260.4      4401.68      4540.02      4675.56
           0      22.1264      77.2823      173.327      298.075
     456.948      630.495      813.418      1002.74      1196.89
     1392.37      1586.96      1781.58      1974.46      2163.89
      2349.1      2529.94      2707.62      2881.03      3050.01
      3214.4       3374.6      3530.82      3683.24      3832.05
     3977.44       4119.6      4258.71      4394.98      4528.58
           0      17.8261      63.0451       147.07      260.973
     409.489      574.041      748.967      930.938      1118.31
     1307.68      1496.83      1686.24      1874.23      2059.18
     2240.31      2417.19      2591.18      2761.14      2926.89
     3088.27      3245.64      3399.19      3549.08      3695.48
     3838.57      3978.54      4115.57      4249.84      4381.51
           0      11.9709      46.0803       117.61      219.912
      357.83      513.323      680.526      855.199      1035.81
     1219.17      1403.09      1587.34      1770.46      1951.01
     2128.14      2301.39      2471.77      2638.31      2800.86
     2959.23      3113.75       3264.6      3411.94      3555.91
      3696.7      3834.49      3969.44      4101.72       4231.5
           0      2.51784      23.6335      82.6577      172.865
     300.863      447.939      608.121      775.762      949.762
      1127.4      1306.53      1485.78      1664.13      1840.39
     2013.73       2183.6      2350.44      2513.61         2673
     2828.42      2980.16      3128.38      3273.22      3414.82
     3553.35      3688.97      3821.85      3952.14         4080

           0     -209.128     -409.396     -595.756     -742.083
    -872.356     -974.941     -1055.08     -1115.21     -1157.93
     -1184.3     -1195.39      -1192.3     -1176.15     -1148.14
    -1109.53     -1061.58     -1005.22     -941.677     -871.978
    -797.163     -717.975     -635.131     -549.295     -461.055
    -370.931     -279.383     -186.814     -93.5807 -5.14462e-05
           0     -201.711     -400.543     -585.947     -729.579
    -856.498     -954.556     -1029.33     -1082.91     -1118.28
       -1137     -1140.45     -1129.18     -1104.73     -1068.65
    -1022.36     -967.173     -903.619     -833.238     -757.175
      -676.5     -591.951     -504.244     -414.041     -321.925
    -228.411     -133.937     -38.8994      56.3472      151.499
           0     -189.111     -381.404     -563.373     -702.628
    -825.535     -918.758     -988.108     -1035.08      -1063.2
    -1074.53     -1070.72     -1051.74     -1019.57     -976.101
    -922.849     -861.192     -791.312     -715.026     -633.572
    -548.014     -459.088     -367.522      -273.97     -179.006
    -83.1342      13.2084      109.642      205.838      301.512
           0     -175.019      -356.79     -531.797     -664.544
    -781.929     -869.435     -932.932      -973.07     -993.903
    -998.031     -987.352     -961.142     -921.844     -871.685
    -812.269     -744.714     -669.349     -588.104     -502.236
    -412.839     -320.628     -226.302     -130.503      -33.789
      63.351      160.495       257.28      353.395      448.575
           0     -160.377     -329.168     -494.018     -618.282
    -728.386     -809.084      -866.04     -899.048     -912.565
    -909.658     -891.879     -858.642     -812.662     -756.288
    -691.178     -618.763     -538.853     -453.592     -364.299
    -272.061     -177.572     -81.5099      15.5049      112.932
     210.303      307.216      403.327      498.348      592.034
           0     -145.468     -299.919      -452.34     -566.448
    -667.422     -739.922     -789.299     -814.605     -820.516
    -810.451     -786.668      -747.25     -695.337     -633.656
    -563.921     -487.556     -404.077     -315.818     -224.144
    -130.122     -34.4179      62.3176      159.489      256.581
     353.149      448.814      543.256      636.215      727.499
           0     -130.394     -269.676     -408.047      -510.77
    -601.133     -664.298     -705.221     -722.415     -720.592
    -703.396     -673.193     -627.707     -570.353     -504.025
    -430.371     -350.734     -264.499     -174.123     -80.9824
     13.8863       109.88      206.348      302.727      398.529
     493.339      586.806      678.637      768.591      856.469
           0     -115.206     -238.784     -361.959     -452.391
    -530.961     -583.822     -615.497     -624.205     -614.531
    -590.212     -553.674     -502.488     -440.166     -369.668
    -292.699     -210.493     -122.341      -30.748      62.9271
     157.681      252.929      348.101      442.654      536.136
     628.165      718.422      806.644       892.62      976.177
           0     -99.9453     -207.445      -314.61     -392.088
     -457.96     -499.754     -521.532     -521.472     -503.893
    -472.502     -429.733     -373.228     -306.474     -232.411
    -152.737      -68.663      20.5635      112.472      205.751
     299.443      393.007      485.905      577.649      667.832
     756.108      842.194      925.862      1006.94      1085.27
           0      -84.633     -175.789     -266.356     -330.409
    -382.916     -413.078     -424.477     -415.481     -390.031
    -351.693     -302.863     -241.463     -170.843     -93.8436
    -12.1344      73.0844      162.536      253.856      345.807
     437.492      528.418      618.096      706.087      792.026
     875.612      956.601       1034.8      1110.07      1182.28
           0     -69.2827     -143.903     -217.448     -267.744
    -306.417     -324.568      -325.28     -307.302      -274.11
     -229.04     -174.409     -108.597       -34.72      44.5465
     127.589      213.194      302.006      391.826      481.517
      570.25      657.586      743.089      826.374      907.124
     985.085      1060.06      1131.89      1200.47      1265.71
           0     -53.9047     -111.852     -168.073     -204.388
    -228.921     -234.836      -224.71     -197.824     -157.124
    -105.639     -45.5751      24.0911      100.557      181.371
     264.986      350.222       437.51      524.905      611.399
     696.234      779.032      859.415      937.054      1011.69
     1083.11      1151.17      1215.76       1276.8      1334.24
           0     -38.5068     -79.6844     -118.376     -140.575
      -150.8     -144.397      -123.43     -87.8218     -39.9411
      17.546       82.569      155.462      233.794      315.379
     398.753      482.775      567.632      651.673      734.028
     814.026      891.349      965.684      1036.76      1104.38
     1168.39      1228.69       1285.2      1337.89      1386.75
           0     -23.0952     -47.4395     -68.4758     -76.4981
    -72.3671     -53.6908     -22.0215      22.0115      76.6488
     139.624      209.021      284.437      363.853      445.379
     527.643      609.561      691.057        770.8      848.076
     922.302      993.229      1060.61      1124.24      1183.99
     1239.75      1291.47      1339.13      1382.73       1422.3
           0      -7.6756     -15.1509     -18.4738     -12.3248
      6.1026      36.8879       78.989      131.043      191.919
      259.77      332.845      410.004      489.665      570.248
     650.485       729.36       806.55      881.055      952.318
     1019.86       1083.5      1143.05       1198.4      1249.47
      1296.2      1338.62      1376.73      1410.59      1440.25
           0      7.74697      17.1496      31.5345      51.7869
     84.3466      126.962      179.095      238.661      305.164
     377.184      453.136      531.187      610.201       688.91
     766.158      841.016       912.95      981.286      1045.63
      1105.6       1161.1      1212.03      1258.32      1299.97
     1337.01      1369.47      1397.44         1421      1440.25
           0      23.1662      49.4257      81.4442      115.665
     162.086      216.138      277.775       344.24      415.668